+ 0.001 /NodeList/1/DeviceList/0/$ns3::LrWpanNetDevice/Mac/MacTxEnqueue ns3::LrWpanMacHeader (  Frame Type = 1, Sec Enable = 0, Frame Pending = 0, Ack Request = 0, PAN ID Compress = 0, Frame Vers = 1, Dst Addrs Mode = 2, Src Addr Mode = 2, Sequence Num = 14, Dst Addr Pan ID = 10, m_addrShortDstAddr = ff:ff, Src Addr Pan ID = 10, m_addrShortSrcAddr = 00:02) ns3::SixLowPanIphc (Compression kind: 31499) ns3::Icmpv6NS (( type = 135 (NS) code = 0 target = 2001:1::ff:fe00:2 checksum = 39513)) ns3::Icmpv6OptionLinkLayerAddress (( type = 1 length = 1 L2 Address = 00-06-00:02:00:00:00:00)) ns3::LrWpanMacTrailer ( FCS = 0)
+ 0.002 /NodeList/0/DeviceList/0/$ns3::LrWpanNetDevice/Mac/MacTxEnqueue ns3::LrWpanMacHeader (  Frame Type = 1, Sec Enable = 0, Frame Pending = 0, Ack Request = 0, PAN ID Compress = 0, Frame Vers = 1, Dst Addrs Mode = 2, Src Addr Mode = 2, Sequence Num = 168, Dst Addr Pan ID = 10, m_addrShortDstAddr = ff:ff, Src Addr Pan ID = 10, m_addrShortSrcAddr = 00:01) ns3::SixLowPanIphc (Compression kind: 31499) ns3::Icmpv6NS (( type = 135 (NS) code = 0 target = 2001:1::ff:fe00:1 checksum = 40025)) ns3::Icmpv6OptionLinkLayerAddress (( type = 1 length = 1 L2 Address = 00-06-00:01:00:00:00:00)) ns3::LrWpanMacTrailer ( FCS = 0)
t 0.0026 /NodeList/1/DeviceList/0/$ns3::LrWpanNetDevice/Mac/MacTx ns3::LrWpanMacHeader (  Frame Type = 1, Sec Enable = 0, Frame Pending = 0, Ack Request = 0, PAN ID Compress = 0, Frame Vers = 1, Dst Addrs Mode = 2, Src Addr Mode = 2, Sequence Num = 14, Dst Addr Pan ID = 10, m_addrShortDstAddr = ff:ff, Src Addr Pan ID = 10, m_addrShortSrcAddr = 00:02) ns3::SixLowPanIphc (Compression kind: 31499) ns3::Icmpv6NS (( type = 135 (NS) code = 0 target = 2001:1::ff:fe00:2 checksum = 39513)) ns3::Icmpv6OptionLinkLayerAddress (( type = 1 length = 1 L2 Address = 00-06-00:02:00:00:00:00)) ns3::LrWpanMacTrailer ( FCS = 0)
+ 0.003 /NodeList/0/DeviceList/0/$ns3::LrWpanNetDevice/Mac/MacTxEnqueue ns3::LrWpanMacHeader (  Frame Type = 1, Sec Enable = 0, Frame Pending = 0, Ack Request = 0, PAN ID Compress = 0, Frame Vers = 1, Dst Addrs Mode = 2, Src Addr Mode = 2, Sequence Num = 169, Dst Addr Pan ID = 10, m_addrShortDstAddr = ff:ff, Src Addr Pan ID = 10, m_addrShortSrcAddr = 00:01) ns3::SixLowPanIphc (Compression kind: 31499) ns3::Icmpv6NS (( type = 135 (NS) code = 0 target = fe80::ff:fe00:1 checksum = 7547)) ns3::Icmpv6OptionLinkLayerAddress (( type = 1 length = 1 L2 Address = 00-06-00:01:00:00:00:00)) ns3::LrWpanMacTrailer ( FCS = 0)
- 0.004872 /NodeList/1/DeviceList/0/$ns3::LrWpanNetDevice/Mac/MacTxDequeue ns3::LrWpanMacHeader (  Frame Type = 1, Sec Enable = 0, Frame Pending = 0, Ack Request = 0, PAN ID Compress = 0, Frame Vers = 1, Dst Addrs Mode = 2, Src Addr Mode = 2, Sequence Num = 14, Dst Addr Pan ID = 10, m_addrShortDstAddr = ff:ff, Src Addr Pan ID = 10, m_addrShortSrcAddr = 00:02) ns3::SixLowPanIphc (Compression kind: 31499) ns3::Icmpv6NS (( type = 135 (NS) code = 0 target = 2001:1::ff:fe00:2 checksum = 39513)) ns3::Icmpv6OptionLinkLayerAddress (( type = 1 length = 1 L2 Address = 00-06-00:02:00:00:00:00)) ns3::LrWpanMacTrailer ( FCS = 0)
r 0.00487217 /NodeList/0/DeviceList/0/$ns3::LrWpanNetDevice/Mac/MacRx ns3::LrWpanMacHeader (  Frame Type = 1, Sec Enable = 0, Frame Pending = 0, Ack Request = 0, PAN ID Compress = 0, Frame Vers = 1, Dst Addrs Mode = 2, Src Addr Mode = 2, Sequence Num = 14, Dst Addr Pan ID = 10, m_addrShortDstAddr = ff:ff, Src Addr Pan ID = 10, m_addrShortSrcAddr = 00:02) ns3::SixLowPanIphc (Compression kind: 31499) ns3::Icmpv6NS (( type = 135 (NS) code = 0 target = 2001:1::ff:fe00:2 checksum = 39513)) ns3::Icmpv6OptionLinkLayerAddress (( type = 1 length = 1 L2 Address = 00-06-00:02:00:00:00:00)) ns3::LrWpanMacTrailer ( FCS = 0)
t 0.006608 /NodeList/0/DeviceList/0/$ns3::LrWpanNetDevice/Mac/MacTx ns3::LrWpanMacHeader (  Frame Type = 1, Sec Enable = 0, Frame Pending = 0, Ack Request = 0, PAN ID Compress = 0, Frame Vers = 1, Dst Addrs Mode = 2, Src Addr Mode = 2, Sequence Num = 168, Dst Addr Pan ID = 10, m_addrShortDstAddr = ff:ff, Src Addr Pan ID = 10, m_addrShortSrcAddr = 00:01) ns3::SixLowPanIphc (Compression kind: 31499) ns3::Icmpv6NS (( type = 135 (NS) code = 0 target = 2001:1::ff:fe00:1 checksum = 40025)) ns3::Icmpv6OptionLinkLayerAddress (( type = 1 length = 1 L2 Address = 00-06-00:01:00:00:00:00)) ns3::LrWpanMacTrailer ( FCS = 0)
- 0.00888 /NodeList/0/DeviceList/0/$ns3::LrWpanNetDevice/Mac/MacTxDequeue ns3::LrWpanMacHeader (  Frame Type = 1, Sec Enable = 0, Frame Pending = 0, Ack Request = 0, PAN ID Compress = 0, Frame Vers = 1, Dst Addrs Mode = 2, Src Addr Mode = 2, Sequence Num = 168, Dst Addr Pan ID = 10, m_addrShortDstAddr = ff:ff, Src Addr Pan ID = 10, m_addrShortSrcAddr = 00:01) ns3::SixLowPanIphc (Compression kind: 31499) ns3::Icmpv6NS (( type = 135 (NS) code = 0 target = 2001:1::ff:fe00:1 checksum = 40025)) ns3::Icmpv6OptionLinkLayerAddress (( type = 1 length = 1 L2 Address = 00-06-00:01:00:00:00:00)) ns3::LrWpanMacTrailer ( FCS = 0)
r 0.00888017 /NodeList/1/DeviceList/0/$ns3::LrWpanNetDevice/Mac/MacRx ns3::LrWpanMacHeader (  Frame Type = 1, Sec Enable = 0, Frame Pending = 0, Ack Request = 0, PAN ID Compress = 0, Frame Vers = 1, Dst Addrs Mode = 2, Src Addr Mode = 2, Sequence Num = 168, Dst Addr Pan ID = 10, m_addrShortDstAddr = ff:ff, Src Addr Pan ID = 10, m_addrShortSrcAddr = 00:01) ns3::SixLowPanIphc (Compression kind: 31499) ns3::Icmpv6NS (( type = 135 (NS) code = 0 target = 2001:1::ff:fe00:1 checksum = 40025)) ns3::Icmpv6OptionLinkLayerAddress (( type = 1 length = 1 L2 Address = 00-06-00:01:00:00:00:00)) ns3::LrWpanMacTrailer ( FCS = 0)
+ 0.009 /NodeList/1/DeviceList/0/$ns3::LrWpanNetDevice/Mac/MacTxEnqueue ns3::LrWpanMacHeader (  Frame Type = 1, Sec Enable = 0, Frame Pending = 0, Ack Request = 0, PAN ID Compress = 0, Frame Vers = 1, Dst Addrs Mode = 2, Src Addr Mode = 2, Sequence Num = 15, Dst Addr Pan ID = 10, m_addrShortDstAddr = ff:ff, Src Addr Pan ID = 10, m_addrShortSrcAddr = 00:02) ns3::SixLowPanIphc (Compression kind: 31499) ns3::Icmpv6NS (( type = 135 (NS) code = 0 target = fe80::ff:fe00:2 checksum = 7035)) ns3::Icmpv6OptionLinkLayerAddress (( type = 1 length = 1 L2 Address = 00-06-00:02:00:00:00:00)) ns3::LrWpanMacTrailer ( FCS = 0)
t 0.009712 /NodeList/0/DeviceList/0/$ns3::LrWpanNetDevice/Mac/MacTx ns3::LrWpanMacHeader (  Frame Type = 1, Sec Enable = 0, Frame Pending = 0, Ack Request = 0, PAN ID Compress = 0, Frame Vers = 1, Dst Addrs Mode = 2, Src Addr Mode = 2, Sequence Num = 169, Dst Addr Pan ID = 10, m_addrShortDstAddr = ff:ff, Src Addr Pan ID = 10, m_addrShortSrcAddr = 00:01) ns3::SixLowPanIphc (Compression kind: 31499) ns3::Icmpv6NS (( type = 135 (NS) code = 0 target = fe80::ff:fe00:1 checksum = 7547)) ns3::Icmpv6OptionLinkLayerAddress (( type = 1 length = 1 L2 Address = 00-06-00:01:00:00:00:00)) ns3::LrWpanMacTrailer ( FCS = 0)
- 0.011984 /NodeList/0/DeviceList/0/$ns3::LrWpanNetDevice/Mac/MacTxDequeue ns3::LrWpanMacHeader (  Frame Type = 1, Sec Enable = 0, Frame Pending = 0, Ack Request = 0, PAN ID Compress = 0, Frame Vers = 1, Dst Addrs Mode = 2, Src Addr Mode = 2, Sequence Num = 169, Dst Addr Pan ID = 10, m_addrShortDstAddr = ff:ff, Src Addr Pan ID = 10, m_addrShortSrcAddr = 00:01) ns3::SixLowPanIphc (Compression kind: 31499) ns3::Icmpv6NS (( type = 135 (NS) code = 0 target = fe80::ff:fe00:1 checksum = 7547)) ns3::Icmpv6OptionLinkLayerAddress (( type = 1 length = 1 L2 Address = 00-06-00:01:00:00:00:00)) ns3::LrWpanMacTrailer ( FCS = 0)
r 0.0119842 /NodeList/1/DeviceList/0/$ns3::LrWpanNetDevice/Mac/MacRx ns3::LrWpanMacHeader (  Frame Type = 1, Sec Enable = 0, Frame Pending = 0, Ack Request = 0, PAN ID Compress = 0, Frame Vers = 1, Dst Addrs Mode = 2, Src Addr Mode = 2, Sequence Num = 169, Dst Addr Pan ID = 10, m_addrShortDstAddr = ff:ff, Src Addr Pan ID = 10, m_addrShortSrcAddr = 00:01) ns3::SixLowPanIphc (Compression kind: 31499) ns3::Icmpv6NS (( type = 135 (NS) code = 0 target = fe80::ff:fe00:1 checksum = 7547)) ns3::Icmpv6OptionLinkLayerAddress (( type = 1 length = 1 L2 Address = 00-06-00:01:00:00:00:00)) ns3::LrWpanMacTrailer ( FCS = 0)
t 0.015336 /NodeList/1/DeviceList/0/$ns3::LrWpanNetDevice/Mac/MacTx ns3::LrWpanMacHeader (  Frame Type = 1, Sec Enable = 0, Frame Pending = 0, Ack Request = 0, PAN ID Compress = 0, Frame Vers = 1, Dst Addrs Mode = 2, Src Addr Mode = 2, Sequence Num = 15, Dst Addr Pan ID = 10, m_addrShortDstAddr = ff:ff, Src Addr Pan ID = 10, m_addrShortSrcAddr = 00:02) ns3::SixLowPanIphc (Compression kind: 31499) ns3::Icmpv6NS (( type = 135 (NS) code = 0 target = fe80::ff:fe00:2 checksum = 7035)) ns3::Icmpv6OptionLinkLayerAddress (( type = 1 length = 1 L2 Address = 00-06-00:02:00:00:00:00)) ns3::LrWpanMacTrailer ( FCS = 0)
- 0.017608 /NodeList/1/DeviceList/0/$ns3::LrWpanNetDevice/Mac/MacTxDequeue ns3::LrWpanMacHeader (  Frame Type = 1, Sec Enable = 0, Frame Pending = 0, Ack Request = 0, PAN ID Compress = 0, Frame Vers = 1, Dst Addrs Mode = 2, Src Addr Mode = 2, Sequence Num = 15, Dst Addr Pan ID = 10, m_addrShortDstAddr = ff:ff, Src Addr Pan ID = 10, m_addrShortSrcAddr = 00:02) ns3::SixLowPanIphc (Compression kind: 31499) ns3::Icmpv6NS (( type = 135 (NS) code = 0 target = fe80::ff:fe00:2 checksum = 7035)) ns3::Icmpv6OptionLinkLayerAddress (( type = 1 length = 1 L2 Address = 00-06-00:02:00:00:00:00)) ns3::LrWpanMacTrailer ( FCS = 0)
r 0.0176082 /NodeList/0/DeviceList/0/$ns3::LrWpanNetDevice/Mac/MacRx ns3::LrWpanMacHeader (  Frame Type = 1, Sec Enable = 0, Frame Pending = 0, Ack Request = 0, PAN ID Compress = 0, Frame Vers = 1, Dst Addrs Mode = 2, Src Addr Mode = 2, Sequence Num = 15, Dst Addr Pan ID = 10, m_addrShortDstAddr = ff:ff, Src Addr Pan ID = 10, m_addrShortSrcAddr = 00:02) ns3::SixLowPanIphc (Compression kind: 31499) ns3::Icmpv6NS (( type = 135 (NS) code = 0 target = fe80::ff:fe00:2 checksum = 7035)) ns3::Icmpv6OptionLinkLayerAddress (( type = 1 length = 1 L2 Address = 00-06-00:02:00:00:00:00)) ns3::LrWpanMacTrailer ( FCS = 0)
+ 1.001 /NodeList/0/DeviceList/0/$ns3::LrWpanNetDevice/Mac/MacTxEnqueue ns3::LrWpanMacHeader (  Frame Type = 1, Sec Enable = 0, Frame Pending = 0, Ack Request = 0, PAN ID Compress = 0, Frame Vers = 1, Dst Addrs Mode = 2, Src Addr Mode = 2, Sequence Num = 170, Dst Addr Pan ID = 10, m_addrShortDstAddr = ff:ff, Src Addr Pan ID = 10, m_addrShortSrcAddr = 00:01) ns3::SixLowPanIphc (Compression kind: 31291) ns3::Icmpv6RS (( type = 133 (RS) code = 0 checksum = 11389)) ns3::Icmpv6OptionLinkLayerAddress (( type = 1 length = 1 L2 Address = 00-06-00:01:00:00:00:00)) ns3::LrWpanMacTrailer ( FCS = 0)
t 1.00292 /NodeList/0/DeviceList/0/$ns3::LrWpanNetDevice/Mac/MacTx ns3::LrWpanMacHeader (  Frame Type = 1, Sec Enable = 0, Frame Pending = 0, Ack Request = 0, PAN ID Compress = 0, Frame Vers = 1, Dst Addrs Mode = 2, Src Addr Mode = 2, Sequence Num = 170, Dst Addr Pan ID = 10, m_addrShortDstAddr = ff:ff, Src Addr Pan ID = 10, m_addrShortSrcAddr = 00:01) ns3::SixLowPanIphc (Compression kind: 31291) ns3::Icmpv6RS (( type = 133 (RS) code = 0 checksum = 11389)) ns3::Icmpv6OptionLinkLayerAddress (( type = 1 length = 1 L2 Address = 00-06-00:01:00:00:00:00)) ns3::LrWpanMacTrailer ( FCS = 0)
- 1.00417 /NodeList/0/DeviceList/0/$ns3::LrWpanNetDevice/Mac/MacTxDequeue ns3::LrWpanMacHeader (  Frame Type = 1, Sec Enable = 0, Frame Pending = 0, Ack Request = 0, PAN ID Compress = 0, Frame Vers = 1, Dst Addrs Mode = 2, Src Addr Mode = 2, Sequence Num = 170, Dst Addr Pan ID = 10, m_addrShortDstAddr = ff:ff, Src Addr Pan ID = 10, m_addrShortSrcAddr = 00:01) ns3::SixLowPanIphc (Compression kind: 31291) ns3::Icmpv6RS (( type = 133 (RS) code = 0 checksum = 11389)) ns3::Icmpv6OptionLinkLayerAddress (( type = 1 length = 1 L2 Address = 00-06-00:01:00:00:00:00)) ns3::LrWpanMacTrailer ( FCS = 0)
r 1.00417 /NodeList/1/DeviceList/0/$ns3::LrWpanNetDevice/Mac/MacRx ns3::LrWpanMacHeader (  Frame Type = 1, Sec Enable = 0, Frame Pending = 0, Ack Request = 0, PAN ID Compress = 0, Frame Vers = 1, Dst Addrs Mode = 2, Src Addr Mode = 2, Sequence Num = 170, Dst Addr Pan ID = 10, m_addrShortDstAddr = ff:ff, Src Addr Pan ID = 10, m_addrShortSrcAddr = 00:01) ns3::SixLowPanIphc (Compression kind: 31291) ns3::Icmpv6RS (( type = 133 (RS) code = 0 checksum = 11389)) ns3::Icmpv6OptionLinkLayerAddress (( type = 1 length = 1 L2 Address = 00-06-00:01:00:00:00:00)) ns3::LrWpanMacTrailer ( FCS = 0)
+ 1.008 /NodeList/1/DeviceList/0/$ns3::LrWpanNetDevice/Mac/MacTxEnqueue ns3::LrWpanMacHeader (  Frame Type = 1, Sec Enable = 0, Frame Pending = 0, Ack Request = 0, PAN ID Compress = 0, Frame Vers = 1, Dst Addrs Mode = 2, Src Addr Mode = 2, Sequence Num = 16, Dst Addr Pan ID = 10, m_addrShortDstAddr = ff:ff, Src Addr Pan ID = 10, m_addrShortSrcAddr = 00:02) ns3::SixLowPanIphc (Compression kind: 31291) ns3::Icmpv6RS (( type = 133 (RS) code = 0 checksum = 10877)) ns3::Icmpv6OptionLinkLayerAddress (( type = 1 length = 1 L2 Address = 00-06-00:02:00:00:00:00)) ns3::LrWpanMacTrailer ( FCS = 0)
t 1.00992 /NodeList/1/DeviceList/0/$ns3::LrWpanNetDevice/Mac/MacTx ns3::LrWpanMacHeader (  Frame Type = 1, Sec Enable = 0, Frame Pending = 0, Ack Request = 0, PAN ID Compress = 0, Frame Vers = 1, Dst Addrs Mode = 2, Src Addr Mode = 2, Sequence Num = 16, Dst Addr Pan ID = 10, m_addrShortDstAddr = ff:ff, Src Addr Pan ID = 10, m_addrShortSrcAddr = 00:02) ns3::SixLowPanIphc (Compression kind: 31291) ns3::Icmpv6RS (( type = 133 (RS) code = 0 checksum = 10877)) ns3::Icmpv6OptionLinkLayerAddress (( type = 1 length = 1 L2 Address = 00-06-00:02:00:00:00:00)) ns3::LrWpanMacTrailer ( FCS = 0)
- 1.01117 /NodeList/1/DeviceList/0/$ns3::LrWpanNetDevice/Mac/MacTxDequeue ns3::LrWpanMacHeader (  Frame Type = 1, Sec Enable = 0, Frame Pending = 0, Ack Request = 0, PAN ID Compress = 0, Frame Vers = 1, Dst Addrs Mode = 2, Src Addr Mode = 2, Sequence Num = 16, Dst Addr Pan ID = 10, m_addrShortDstAddr = ff:ff, Src Addr Pan ID = 10, m_addrShortSrcAddr = 00:02) ns3::SixLowPanIphc (Compression kind: 31291) ns3::Icmpv6RS (( type = 133 (RS) code = 0 checksum = 10877)) ns3::Icmpv6OptionLinkLayerAddress (( type = 1 length = 1 L2 Address = 00-06-00:02:00:00:00:00)) ns3::LrWpanMacTrailer ( FCS = 0)
r 1.01117 /NodeList/0/DeviceList/0/$ns3::LrWpanNetDevice/Mac/MacRx ns3::LrWpanMacHeader (  Frame Type = 1, Sec Enable = 0, Frame Pending = 0, Ack Request = 0, PAN ID Compress = 0, Frame Vers = 1, Dst Addrs Mode = 2, Src Addr Mode = 2, Sequence Num = 16, Dst Addr Pan ID = 10, m_addrShortDstAddr = ff:ff, Src Addr Pan ID = 10, m_addrShortSrcAddr = 00:02) ns3::SixLowPanIphc (Compression kind: 31291) ns3::Icmpv6RS (( type = 133 (RS) code = 0 checksum = 10877)) ns3::Icmpv6OptionLinkLayerAddress (( type = 1 length = 1 L2 Address = 00-06-00:02:00:00:00:00)) ns3::LrWpanMacTrailer ( FCS = 0)
