+ 0.004 /NodeList/0/DeviceList/0/$ns3::LrWpanNetDevice/Mac/MacTxEnqueue ns3::LrWpanMacHeader (  Frame Type = 1, Sec Enable = 0, Frame Pending = 0, Ack Request = 0, PAN ID Compress = 0, Frame Vers = 1, Dst Addrs Mode = 2, Src Addr Mode = 2, Sequence Num = 87, Dst Addr Pan ID = 10, m_addrShortDstAddr = ff:ff, Src Addr Pan ID = 10, m_addrShortSrcAddr = 00:01) ns3::SixLowPanIphc (Compression kind: 31499) ns3::Icmpv6NS (( type = 135 (NS) code = 0 target = fe80::ff:fe00:1 checksum = 7547)) ns3::Icmpv6OptionLinkLayerAddress (( type = 1 length = 1 L2 Address = 00-06-00:01:00:00:00:00)) ns3::LrWpanMacTrailer ( FCS = 0)
+ 0.005 /NodeList/1/DeviceList/0/$ns3::LrWpanNetDevice/Mac/MacTxEnqueue ns3::LrWpanMacHeader (  Frame Type = 1, Sec Enable = 0, Frame Pending = 0, Ack Request = 0, PAN ID Compress = 0, Frame Vers = 1, Dst Addrs Mode = 2, Src Addr Mode = 2, Sequence Num = 131, Dst Addr Pan ID = 10, m_addrShortDstAddr = ff:ff, Src Addr Pan ID = 10, m_addrShortSrcAddr = 00:02) ns3::SixLowPanIphc (Compression kind: 31499) ns3::Icmpv6NS (( type = 135 (NS) code = 0 target = fe80::ff:fe00:2 checksum = 7035)) ns3::Icmpv6OptionLinkLayerAddress (( type = 1 length = 1 L2 Address = 00-06-00:02:00:00:00:00)) ns3::LrWpanMacTrailer ( FCS = 0)
t 0.00532 /NodeList/1/DeviceList/0/$ns3::LrWpanNetDevice/Mac/MacTx ns3::LrWpanMacHeader (  Frame Type = 1, Sec Enable = 0, Frame Pending = 0, Ack Request = 0, PAN ID Compress = 0, Frame Vers = 1, Dst Addrs Mode = 2, Src Addr Mode = 2, Sequence Num = 131, Dst Addr Pan ID = 10, m_addrShortDstAddr = ff:ff, Src Addr Pan ID = 10, m_addrShortSrcAddr = 00:02) ns3::SixLowPanIphc (Compression kind: 31499) ns3::Icmpv6NS (( type = 135 (NS) code = 0 target = fe80::ff:fe00:2 checksum = 7035)) ns3::Icmpv6OptionLinkLayerAddress (( type = 1 length = 1 L2 Address = 00-06-00:02:00:00:00:00)) ns3::LrWpanMacTrailer ( FCS = 0)
+ 0.007 /NodeList/1/DeviceList/0/$ns3::LrWpanNetDevice/Mac/MacTxEnqueue ns3::LrWpanMacHeader (  Frame Type = 1, Sec Enable = 0, Frame Pending = 0, Ack Request = 0, PAN ID Compress = 0, Frame Vers = 1, Dst Addrs Mode = 2, Src Addr Mode = 2, Sequence Num = 132, Dst Addr Pan ID = 10, m_addrShortDstAddr = ff:ff, Src Addr Pan ID = 10, m_addrShortSrcAddr = 00:02) ns3::SixLowPanIphc (Compression kind: 31499) ns3::Icmpv6NS (( type = 135 (NS) code = 0 target = 2001:1::ff:fe00:2 checksum = 39513)) ns3::Icmpv6OptionLinkLayerAddress (( type = 1 length = 1 L2 Address = 00-06-00:02:00:00:00:00)) ns3::LrWpanMacTrailer ( FCS = 0)
- 0.007592 /NodeList/1/DeviceList/0/$ns3::LrWpanNetDevice/Mac/MacTxDequeue ns3::LrWpanMacHeader (  Frame Type = 1, Sec Enable = 0, Frame Pending = 0, Ack Request = 0, PAN ID Compress = 0, Frame Vers = 1, Dst Addrs Mode = 2, Src Addr Mode = 2, Sequence Num = 131, Dst Addr Pan ID = 10, m_addrShortDstAddr = ff:ff, Src Addr Pan ID = 10, m_addrShortSrcAddr = 00:02) ns3::SixLowPanIphc (Compression kind: 31499) ns3::Icmpv6NS (( type = 135 (NS) code = 0 target = fe80::ff:fe00:2 checksum = 7035)) ns3::Icmpv6OptionLinkLayerAddress (( type = 1 length = 1 L2 Address = 00-06-00:02:00:00:00:00)) ns3::LrWpanMacTrailer ( FCS = 0)
r 0.00759216 /NodeList/0/DeviceList/0/$ns3::LrWpanNetDevice/Mac/MacRx ns3::LrWpanMacHeader (  Frame Type = 1, Sec Enable = 0, Frame Pending = 0, Ack Request = 0, PAN ID Compress = 0, Frame Vers = 1, Dst Addrs Mode = 2, Src Addr Mode = 2, Sequence Num = 131, Dst Addr Pan ID = 10, m_addrShortDstAddr = ff:ff, Src Addr Pan ID = 10, m_addrShortSrcAddr = 00:02) ns3::SixLowPanIphc (Compression kind: 31499) ns3::Icmpv6NS (( type = 135 (NS) code = 0 target = fe80::ff:fe00:2 checksum = 7035)) ns3::Icmpv6OptionLinkLayerAddress (( type = 1 length = 1 L2 Address = 00-06-00:02:00:00:00:00)) ns3::LrWpanMacTrailer ( FCS = 0)
t 0.008744 /NodeList/1/DeviceList/0/$ns3::LrWpanNetDevice/Mac/MacTx ns3::LrWpanMacHeader (  Frame Type = 1, Sec Enable = 0, Frame Pending = 0, Ack Request = 0, PAN ID Compress = 0, Frame Vers = 1, Dst Addrs Mode = 2, Src Addr Mode = 2, Sequence Num = 132, Dst Addr Pan ID = 10, m_addrShortDstAddr = ff:ff, Src Addr Pan ID = 10, m_addrShortSrcAddr = 00:02) ns3::SixLowPanIphc (Compression kind: 31499) ns3::Icmpv6NS (( type = 135 (NS) code = 0 target = 2001:1::ff:fe00:2 checksum = 39513)) ns3::Icmpv6OptionLinkLayerAddress (( type = 1 length = 1 L2 Address = 00-06-00:02:00:00:00:00)) ns3::LrWpanMacTrailer ( FCS = 0)
+ 0.009 /NodeList/0/DeviceList/0/$ns3::LrWpanNetDevice/Mac/MacTxEnqueue ns3::LrWpanMacHeader (  Frame Type = 1, Sec Enable = 0, Frame Pending = 0, Ack Request = 0, PAN ID Compress = 0, Frame Vers = 1, Dst Addrs Mode = 2, Src Addr Mode = 2, Sequence Num = 88, Dst Addr Pan ID = 10, m_addrShortDstAddr = ff:ff, Src Addr Pan ID = 10, m_addrShortSrcAddr = 00:01) ns3::SixLowPanIphc (Compression kind: 31499) ns3::Icmpv6NS (( type = 135 (NS) code = 0 target = 2001:1::ff:fe00:1 checksum = 40025)) ns3::Icmpv6OptionLinkLayerAddress (( type = 1 length = 1 L2 Address = 00-06-00:01:00:00:00:00)) ns3::LrWpanMacTrailer ( FCS = 0)
- 0.011016 /NodeList/1/DeviceList/0/$ns3::LrWpanNetDevice/Mac/MacTxDequeue ns3::LrWpanMacHeader (  Frame Type = 1, Sec Enable = 0, Frame Pending = 0, Ack Request = 0, PAN ID Compress = 0, Frame Vers = 1, Dst Addrs Mode = 2, Src Addr Mode = 2, Sequence Num = 132, Dst Addr Pan ID = 10, m_addrShortDstAddr = ff:ff, Src Addr Pan ID = 10, m_addrShortSrcAddr = 00:02) ns3::SixLowPanIphc (Compression kind: 31499) ns3::Icmpv6NS (( type = 135 (NS) code = 0 target = 2001:1::ff:fe00:2 checksum = 39513)) ns3::Icmpv6OptionLinkLayerAddress (( type = 1 length = 1 L2 Address = 00-06-00:02:00:00:00:00)) ns3::LrWpanMacTrailer ( FCS = 0)
r 0.0110162 /NodeList/0/DeviceList/0/$ns3::LrWpanNetDevice/Mac/MacRx ns3::LrWpanMacHeader (  Frame Type = 1, Sec Enable = 0, Frame Pending = 0, Ack Request = 0, PAN ID Compress = 0, Frame Vers = 1, Dst Addrs Mode = 2, Src Addr Mode = 2, Sequence Num = 132, Dst Addr Pan ID = 10, m_addrShortDstAddr = ff:ff, Src Addr Pan ID = 10, m_addrShortSrcAddr = 00:02) ns3::SixLowPanIphc (Compression kind: 31499) ns3::Icmpv6NS (( type = 135 (NS) code = 0 target = 2001:1::ff:fe00:2 checksum = 39513)) ns3::Icmpv6OptionLinkLayerAddress (( type = 1 length = 1 L2 Address = 00-06-00:02:00:00:00:00)) ns3::LrWpanMacTrailer ( FCS = 0)
t 0.016736 /NodeList/0/DeviceList/0/$ns3::LrWpanNetDevice/Mac/MacTx ns3::LrWpanMacHeader (  Frame Type = 1, Sec Enable = 0, Frame Pending = 0, Ack Request = 0, PAN ID Compress = 0, Frame Vers = 1, Dst Addrs Mode = 2, Src Addr Mode = 2, Sequence Num = 87, Dst Addr Pan ID = 10, m_addrShortDstAddr = ff:ff, Src Addr Pan ID = 10, m_addrShortSrcAddr = 00:01) ns3::SixLowPanIphc (Compression kind: 31499) ns3::Icmpv6NS (( type = 135 (NS) code = 0 target = fe80::ff:fe00:1 checksum = 7547)) ns3::Icmpv6OptionLinkLayerAddress (( type = 1 length = 1 L2 Address = 00-06-00:01:00:00:00:00)) ns3::LrWpanMacTrailer ( FCS = 0)
- 0.019008 /NodeList/0/DeviceList/0/$ns3::LrWpanNetDevice/Mac/MacTxDequeue ns3::LrWpanMacHeader (  Frame Type = 1, Sec Enable = 0, Frame Pending = 0, Ack Request = 0, PAN ID Compress = 0, Frame Vers = 1, Dst Addrs Mode = 2, Src Addr Mode = 2, Sequence Num = 87, Dst Addr Pan ID = 10, m_addrShortDstAddr = ff:ff, Src Addr Pan ID = 10, m_addrShortSrcAddr = 00:01) ns3::SixLowPanIphc (Compression kind: 31499) ns3::Icmpv6NS (( type = 135 (NS) code = 0 target = fe80::ff:fe00:1 checksum = 7547)) ns3::Icmpv6OptionLinkLayerAddress (( type = 1 length = 1 L2 Address = 00-06-00:01:00:00:00:00)) ns3::LrWpanMacTrailer ( FCS = 0)
r 0.0190082 /NodeList/1/DeviceList/0/$ns3::LrWpanNetDevice/Mac/MacRx ns3::LrWpanMacHeader (  Frame Type = 1, Sec Enable = 0, Frame Pending = 0, Ack Request = 0, PAN ID Compress = 0, Frame Vers = 1, Dst Addrs Mode = 2, Src Addr Mode = 2, Sequence Num = 87, Dst Addr Pan ID = 10, m_addrShortDstAddr = ff:ff, Src Addr Pan ID = 10, m_addrShortSrcAddr = 00:01) ns3::SixLowPanIphc (Compression kind: 31499) ns3::Icmpv6NS (( type = 135 (NS) code = 0 target = fe80::ff:fe00:1 checksum = 7547)) ns3::Icmpv6OptionLinkLayerAddress (( type = 1 length = 1 L2 Address = 00-06-00:01:00:00:00:00)) ns3::LrWpanMacTrailer ( FCS = 0)
t 0.02144 /NodeList/0/DeviceList/0/$ns3::LrWpanNetDevice/Mac/MacTx ns3::LrWpanMacHeader (  Frame Type = 1, Sec Enable = 0, Frame Pending = 0, Ack Request = 0, PAN ID Compress = 0, Frame Vers = 1, Dst Addrs Mode = 2, Src Addr Mode = 2, Sequence Num = 88, Dst Addr Pan ID = 10, m_addrShortDstAddr = ff:ff, Src Addr Pan ID = 10, m_addrShortSrcAddr = 00:01) ns3::SixLowPanIphc (Compression kind: 31499) ns3::Icmpv6NS (( type = 135 (NS) code = 0 target = 2001:1::ff:fe00:1 checksum = 40025)) ns3::Icmpv6OptionLinkLayerAddress (( type = 1 length = 1 L2 Address = 00-06-00:01:00:00:00:00)) ns3::LrWpanMacTrailer ( FCS = 0)
- 0.023712 /NodeList/0/DeviceList/0/$ns3::LrWpanNetDevice/Mac/MacTxDequeue ns3::LrWpanMacHeader (  Frame Type = 1, Sec Enable = 0, Frame Pending = 0, Ack Request = 0, PAN ID Compress = 0, Frame Vers = 1, Dst Addrs Mode = 2, Src Addr Mode = 2, Sequence Num = 88, Dst Addr Pan ID = 10, m_addrShortDstAddr = ff:ff, Src Addr Pan ID = 10, m_addrShortSrcAddr = 00:01) ns3::SixLowPanIphc (Compression kind: 31499) ns3::Icmpv6NS (( type = 135 (NS) code = 0 target = 2001:1::ff:fe00:1 checksum = 40025)) ns3::Icmpv6OptionLinkLayerAddress (( type = 1 length = 1 L2 Address = 00-06-00:01:00:00:00:00)) ns3::LrWpanMacTrailer ( FCS = 0)
r 0.0237122 /NodeList/1/DeviceList/0/$ns3::LrWpanNetDevice/Mac/MacRx ns3::LrWpanMacHeader (  Frame Type = 1, Sec Enable = 0, Frame Pending = 0, Ack Request = 0, PAN ID Compress = 0, Frame Vers = 1, Dst Addrs Mode = 2, Src Addr Mode = 2, Sequence Num = 88, Dst Addr Pan ID = 10, m_addrShortDstAddr = ff:ff, Src Addr Pan ID = 10, m_addrShortSrcAddr = 00:01) ns3::SixLowPanIphc (Compression kind: 31499) ns3::Icmpv6NS (( type = 135 (NS) code = 0 target = 2001:1::ff:fe00:1 checksum = 40025)) ns3::Icmpv6OptionLinkLayerAddress (( type = 1 length = 1 L2 Address = 00-06-00:01:00:00:00:00)) ns3::LrWpanMacTrailer ( FCS = 0)
+ 1.005 /NodeList/0/DeviceList/0/$ns3::LrWpanNetDevice/Mac/MacTxEnqueue ns3::LrWpanMacHeader (  Frame Type = 1, Sec Enable = 0, Frame Pending = 0, Ack Request = 0, PAN ID Compress = 0, Frame Vers = 1, Dst Addrs Mode = 2, Src Addr Mode = 2, Sequence Num = 89, Dst Addr Pan ID = 10, m_addrShortDstAddr = ff:ff, Src Addr Pan ID = 10, m_addrShortSrcAddr = 00:01) ns3::SixLowPanIphc (Compression kind: 31291) ns3::Icmpv6RS (( type = 133 (RS) code = 0 checksum = 11389)) ns3::Icmpv6OptionLinkLayerAddress (( type = 1 length = 1 L2 Address = 00-06-00:01:00:00:00:00)) ns3::LrWpanMacTrailer ( FCS = 0)
t 1.0066 /NodeList/0/DeviceList/0/$ns3::LrWpanNetDevice/Mac/MacTx ns3::LrWpanMacHeader (  Frame Type = 1, Sec Enable = 0, Frame Pending = 0, Ack Request = 0, PAN ID Compress = 0, Frame Vers = 1, Dst Addrs Mode = 2, Src Addr Mode = 2, Sequence Num = 89, Dst Addr Pan ID = 10, m_addrShortDstAddr = ff:ff, Src Addr Pan ID = 10, m_addrShortSrcAddr = 00:01) ns3::SixLowPanIphc (Compression kind: 31291) ns3::Icmpv6RS (( type = 133 (RS) code = 0 checksum = 11389)) ns3::Icmpv6OptionLinkLayerAddress (( type = 1 length = 1 L2 Address = 00-06-00:01:00:00:00:00)) ns3::LrWpanMacTrailer ( FCS = 0)
+ 1.007 /NodeList/1/DeviceList/0/$ns3::LrWpanNetDevice/Mac/MacTxEnqueue ns3::LrWpanMacHeader (  Frame Type = 1, Sec Enable = 0, Frame Pending = 0, Ack Request = 0, PAN ID Compress = 0, Frame Vers = 1, Dst Addrs Mode = 2, Src Addr Mode = 2, Sequence Num = 133, Dst Addr Pan ID = 10, m_addrShortDstAddr = ff:ff, Src Addr Pan ID = 10, m_addrShortSrcAddr = 00:02) ns3::SixLowPanIphc (Compression kind: 31291) ns3::Icmpv6RS (( type = 133 (RS) code = 0 checksum = 10877)) ns3::Icmpv6OptionLinkLayerAddress (( type = 1 length = 1 L2 Address = 00-06-00:02:00:00:00:00)) ns3::LrWpanMacTrailer ( FCS = 0)
- 1.00785 /NodeList/0/DeviceList/0/$ns3::LrWpanNetDevice/Mac/MacTxDequeue ns3::LrWpanMacHeader (  Frame Type = 1, Sec Enable = 0, Frame Pending = 0, Ack Request = 0, PAN ID Compress = 0, Frame Vers = 1, Dst Addrs Mode = 2, Src Addr Mode = 2, Sequence Num = 89, Dst Addr Pan ID = 10, m_addrShortDstAddr = ff:ff, Src Addr Pan ID = 10, m_addrShortSrcAddr = 00:01) ns3::SixLowPanIphc (Compression kind: 31291) ns3::Icmpv6RS (( type = 133 (RS) code = 0 checksum = 11389)) ns3::Icmpv6OptionLinkLayerAddress (( type = 1 length = 1 L2 Address = 00-06-00:01:00:00:00:00)) ns3::LrWpanMacTrailer ( FCS = 0)
r 1.00785 /NodeList/1/DeviceList/0/$ns3::LrWpanNetDevice/Mac/MacRx ns3::LrWpanMacHeader (  Frame Type = 1, Sec Enable = 0, Frame Pending = 0, Ack Request = 0, PAN ID Compress = 0, Frame Vers = 1, Dst Addrs Mode = 2, Src Addr Mode = 2, Sequence Num = 89, Dst Addr Pan ID = 10, m_addrShortDstAddr = ff:ff, Src Addr Pan ID = 10, m_addrShortSrcAddr = 00:01) ns3::SixLowPanIphc (Compression kind: 31291) ns3::Icmpv6RS (( type = 133 (RS) code = 0 checksum = 11389)) ns3::Icmpv6OptionLinkLayerAddress (( type = 1 length = 1 L2 Address = 00-06-00:01:00:00:00:00)) ns3::LrWpanMacTrailer ( FCS = 0)
t 1.00937 /NodeList/1/DeviceList/0/$ns3::LrWpanNetDevice/Mac/MacTx ns3::LrWpanMacHeader (  Frame Type = 1, Sec Enable = 0, Frame Pending = 0, Ack Request = 0, PAN ID Compress = 0, Frame Vers = 1, Dst Addrs Mode = 2, Src Addr Mode = 2, Sequence Num = 133, Dst Addr Pan ID = 10, m_addrShortDstAddr = ff:ff, Src Addr Pan ID = 10, m_addrShortSrcAddr = 00:02) ns3::SixLowPanIphc (Compression kind: 31291) ns3::Icmpv6RS (( type = 133 (RS) code = 0 checksum = 10877)) ns3::Icmpv6OptionLinkLayerAddress (( type = 1 length = 1 L2 Address = 00-06-00:02:00:00:00:00)) ns3::LrWpanMacTrailer ( FCS = 0)
- 1.01062 /NodeList/1/DeviceList/0/$ns3::LrWpanNetDevice/Mac/MacTxDequeue ns3::LrWpanMacHeader (  Frame Type = 1, Sec Enable = 0, Frame Pending = 0, Ack Request = 0, PAN ID Compress = 0, Frame Vers = 1, Dst Addrs Mode = 2, Src Addr Mode = 2, Sequence Num = 133, Dst Addr Pan ID = 10, m_addrShortDstAddr = ff:ff, Src Addr Pan ID = 10, m_addrShortSrcAddr = 00:02) ns3::SixLowPanIphc (Compression kind: 31291) ns3::Icmpv6RS (( type = 133 (RS) code = 0 checksum = 10877)) ns3::Icmpv6OptionLinkLayerAddress (( type = 1 length = 1 L2 Address = 00-06-00:02:00:00:00:00)) ns3::LrWpanMacTrailer ( FCS = 0)
r 1.01062 /NodeList/0/DeviceList/0/$ns3::LrWpanNetDevice/Mac/MacRx ns3::LrWpanMacHeader (  Frame Type = 1, Sec Enable = 0, Frame Pending = 0, Ack Request = 0, PAN ID Compress = 0, Frame Vers = 1, Dst Addrs Mode = 2, Src Addr Mode = 2, Sequence Num = 133, Dst Addr Pan ID = 10, m_addrShortDstAddr = ff:ff, Src Addr Pan ID = 10, m_addrShortSrcAddr = 00:02) ns3::SixLowPanIphc (Compression kind: 31291) ns3::Icmpv6RS (( type = 133 (RS) code = 0 checksum = 10877)) ns3::Icmpv6OptionLinkLayerAddress (( type = 1 length = 1 L2 Address = 00-06-00:02:00:00:00:00)) ns3::LrWpanMacTrailer ( FCS = 0)
+ 2.009 /NodeList/0/DeviceList/0/$ns3::LrWpanNetDevice/Mac/MacTxEnqueue ns3::LrWpanMacHeader (  Frame Type = 1, Sec Enable = 0, Frame Pending = 0, Ack Request = 0, PAN ID Compress = 0, Frame Vers = 1, Dst Addrs Mode = 2, Src Addr Mode = 2, Sequence Num = 90, Dst Addr Pan ID = 10, m_addrShortDstAddr = ff:ff, Src Addr Pan ID = 10, m_addrShortSrcAddr = 00:01) ns3::SixLowPanIphc (Compression kind: 31241) ns3::Icmpv6NS (( type = 135 (NS) code = 0 target = 2001:1::ff:fe00:2 checksum = 38203)) ns3::Icmpv6OptionLinkLayerAddress (( type = 1 length = 1 L2 Address = 00-06-00:01:00:00:00:00)) ns3::LrWpanMacTrailer ( FCS = 0)
t 2.0106 /NodeList/0/DeviceList/0/$ns3::LrWpanNetDevice/Mac/MacTx ns3::LrWpanMacHeader (  Frame Type = 1, Sec Enable = 0, Frame Pending = 0, Ack Request = 0, PAN ID Compress = 0, Frame Vers = 1, Dst Addrs Mode = 2, Src Addr Mode = 2, Sequence Num = 90, Dst Addr Pan ID = 10, m_addrShortDstAddr = ff:ff, Src Addr Pan ID = 10, m_addrShortSrcAddr = 00:01) ns3::SixLowPanIphc (Compression kind: 31241) ns3::Icmpv6NS (( type = 135 (NS) code = 0 target = 2001:1::ff:fe00:2 checksum = 38203)) ns3::Icmpv6OptionLinkLayerAddress (( type = 1 length = 1 L2 Address = 00-06-00:01:00:00:00:00)) ns3::LrWpanMacTrailer ( FCS = 0)
- 2.01303 /NodeList/0/DeviceList/0/$ns3::LrWpanNetDevice/Mac/MacTxDequeue ns3::LrWpanMacHeader (  Frame Type = 1, Sec Enable = 0, Frame Pending = 0, Ack Request = 0, PAN ID Compress = 0, Frame Vers = 1, Dst Addrs Mode = 2, Src Addr Mode = 2, Sequence Num = 90, Dst Addr Pan ID = 10, m_addrShortDstAddr = ff:ff, Src Addr Pan ID = 10, m_addrShortSrcAddr = 00:01) ns3::SixLowPanIphc (Compression kind: 31241) ns3::Icmpv6NS (( type = 135 (NS) code = 0 target = 2001:1::ff:fe00:2 checksum = 38203)) ns3::Icmpv6OptionLinkLayerAddress (( type = 1 length = 1 L2 Address = 00-06-00:01:00:00:00:00)) ns3::LrWpanMacTrailer ( FCS = 0)
r 2.01303 /NodeList/1/DeviceList/0/$ns3::LrWpanNetDevice/Mac/MacRx ns3::LrWpanMacHeader (  Frame Type = 1, Sec Enable = 0, Frame Pending = 0, Ack Request = 0, PAN ID Compress = 0, Frame Vers = 1, Dst Addrs Mode = 2, Src Addr Mode = 2, Sequence Num = 90, Dst Addr Pan ID = 10, m_addrShortDstAddr = ff:ff, Src Addr Pan ID = 10, m_addrShortSrcAddr = 00:01) ns3::SixLowPanIphc (Compression kind: 31241) ns3::Icmpv6NS (( type = 135 (NS) code = 0 target = 2001:1::ff:fe00:2 checksum = 38203)) ns3::Icmpv6OptionLinkLayerAddress (( type = 1 length = 1 L2 Address = 00-06-00:01:00:00:00:00)) ns3::LrWpanMacTrailer ( FCS = 0)
+ 2.01303 /NodeList/1/DeviceList/0/$ns3::LrWpanNetDevice/Mac/MacTxEnqueue ns3::LrWpanMacHeader (  Frame Type = 1, Sec Enable = 0, Frame Pending = 0, Ack Request = 1, PAN ID Compress = 0, Frame Vers = 1, Dst Addrs Mode = 2, Src Addr Mode = 2, Sequence Num = 134, Dst Addr Pan ID = 10, m_addrShortDstAddr = 00:01, Src Addr Pan ID = 10, m_addrShortSrcAddr = 00:02) ns3::SixLowPanIphc (Compression kind: 31488) ns3::Icmpv6NA (( type = 136 (NA) code = 0 checksum = 38584)) ns3::Icmpv6OptionLinkLayerAddress (( type = 2 length = 1 L2 Address = 00-06-00:02:00:00:00:00)) ns3::LrWpanMacTrailer ( FCS = 0)
t 2.01367 /NodeList/1/DeviceList/0/$ns3::LrWpanNetDevice/Mac/MacTx ns3::LrWpanMacHeader (  Frame Type = 1, Sec Enable = 0, Frame Pending = 0, Ack Request = 1, PAN ID Compress = 0, Frame Vers = 1, Dst Addrs Mode = 2, Src Addr Mode = 2, Sequence Num = 134, Dst Addr Pan ID = 10, m_addrShortDstAddr = 00:01, Src Addr Pan ID = 10, m_addrShortSrcAddr = 00:02) ns3::SixLowPanIphc (Compression kind: 31488) ns3::Icmpv6NA (( type = 136 (NA) code = 0 checksum = 38584)) ns3::Icmpv6OptionLinkLayerAddress (( type = 2 length = 1 L2 Address = 00-06-00:02:00:00:00:00)) ns3::LrWpanMacTrailer ( FCS = 0)
r 2.01642 /NodeList/0/DeviceList/0/$ns3::LrWpanNetDevice/Mac/MacRx ns3::LrWpanMacHeader (  Frame Type = 1, Sec Enable = 0, Frame Pending = 0, Ack Request = 1, PAN ID Compress = 0, Frame Vers = 1, Dst Addrs Mode = 2, Src Addr Mode = 2, Sequence Num = 134, Dst Addr Pan ID = 10, m_addrShortDstAddr = 00:01, Src Addr Pan ID = 10, m_addrShortSrcAddr = 00:02) ns3::SixLowPanIphc (Compression kind: 31488) ns3::Icmpv6NA (( type = 136 (NA) code = 0 checksum = 38584)) ns3::Icmpv6OptionLinkLayerAddress (( type = 2 length = 1 L2 Address = 00-06-00:02:00:00:00:00)) ns3::LrWpanMacTrailer ( FCS = 0)
+ 2.01642 /NodeList/0/DeviceList/0/$ns3::LrWpanNetDevice/Mac/MacTxEnqueue ns3::LrWpanMacHeader (  Frame Type = 1, Sec Enable = 0, Frame Pending = 0, Ack Request = 1, PAN ID Compress = 0, Frame Vers = 1, Dst Addrs Mode = 2, Src Addr Mode = 2, Sequence Num = 91, Dst Addr Pan ID = 10, m_addrShortDstAddr = 00:02, Src Addr Pan ID = 10, m_addrShortSrcAddr = 00:01) ns3::SixLowPanIphc (Compression kind: 31232) ns3::Icmpv6Echo (( type = 128 (Request) code = 0 checksum = 7909)) Payload (size=10) ns3::LrWpanMacTrailer ( FCS = 0)
t 2.01662 /NodeList/0/DeviceList/0/$ns3::LrWpanNetDevice/Mac/MacTx ns3::LrWpanMacHeader (  Frame Type = 2, Sec Enable = 0, Frame Pending = 0, Ack Request = 0, PAN ID Compress = 0, Frame Vers = 1, Dst Addrs Mode = 0, Src Addr Mode = 0, Sequence Num = 134) ns3::LrWpanMacTrailer ( FCS = 0)
r 2.01697 /NodeList/1/DeviceList/0/$ns3::LrWpanNetDevice/Mac/MacRx ns3::LrWpanMacHeader (  Frame Type = 2, Sec Enable = 0, Frame Pending = 0, Ack Request = 0, PAN ID Compress = 0, Frame Vers = 1, Dst Addrs Mode = 0, Src Addr Mode = 0, Sequence Num = 134) ns3::LrWpanMacTrailer ( FCS = 0)
- 2.01697 /NodeList/1/DeviceList/0/$ns3::LrWpanNetDevice/Mac/MacTxDequeue ns3::LrWpanMacHeader (  Frame Type = 1, Sec Enable = 0, Frame Pending = 0, Ack Request = 1, PAN ID Compress = 0, Frame Vers = 1, Dst Addrs Mode = 2, Src Addr Mode = 2, Sequence Num = 134, Dst Addr Pan ID = 10, m_addrShortDstAddr = 00:01, Src Addr Pan ID = 10, m_addrShortSrcAddr = 00:02) ns3::SixLowPanIphc (Compression kind: 31488) ns3::Icmpv6NA (( type = 136 (NA) code = 0 checksum = 38584)) ns3::Icmpv6OptionLinkLayerAddress (( type = 2 length = 1 L2 Address = 00-06-00:02:00:00:00:00)) ns3::LrWpanMacTrailer ( FCS = 0)
t 2.01876 /NodeList/0/DeviceList/0/$ns3::LrWpanNetDevice/Mac/MacTx ns3::LrWpanMacHeader (  Frame Type = 1, Sec Enable = 0, Frame Pending = 0, Ack Request = 1, PAN ID Compress = 0, Frame Vers = 1, Dst Addrs Mode = 2, Src Addr Mode = 2, Sequence Num = 91, Dst Addr Pan ID = 10, m_addrShortDstAddr = 00:02, Src Addr Pan ID = 10, m_addrShortSrcAddr = 00:01) ns3::SixLowPanIphc (Compression kind: 31232) ns3::Icmpv6Echo (( type = 128 (Request) code = 0 checksum = 7909)) Payload (size=10) ns3::LrWpanMacTrailer ( FCS = 0)
r 2.02106 /NodeList/1/DeviceList/0/$ns3::LrWpanNetDevice/Mac/MacRx ns3::LrWpanMacHeader (  Frame Type = 1, Sec Enable = 0, Frame Pending = 0, Ack Request = 1, PAN ID Compress = 0, Frame Vers = 1, Dst Addrs Mode = 2, Src Addr Mode = 2, Sequence Num = 91, Dst Addr Pan ID = 10, m_addrShortDstAddr = 00:02, Src Addr Pan ID = 10, m_addrShortSrcAddr = 00:01) ns3::SixLowPanIphc (Compression kind: 31232) ns3::Icmpv6Echo (( type = 128 (Request) code = 0 checksum = 7909)) Payload (size=10) ns3::LrWpanMacTrailer ( FCS = 0)
+ 2.02106 /NodeList/1/DeviceList/0/$ns3::LrWpanNetDevice/Mac/MacTxEnqueue ns3::LrWpanMacHeader (  Frame Type = 1, Sec Enable = 0, Frame Pending = 0, Ack Request = 1, PAN ID Compress = 0, Frame Vers = 1, Dst Addrs Mode = 2, Src Addr Mode = 2, Sequence Num = 135, Dst Addr Pan ID = 10, m_addrShortDstAddr = 00:01, Src Addr Pan ID = 10, m_addrShortSrcAddr = 00:02) ns3::SixLowPanIphc (Compression kind: 31232) ns3::Icmpv6Echo (( type = 129 (Reply) code = 0 checksum = 7908)) Payload (size=10) ns3::LrWpanMacTrailer ( FCS = 0)
t 2.02126 /NodeList/1/DeviceList/0/$ns3::LrWpanNetDevice/Mac/MacTx ns3::LrWpanMacHeader (  Frame Type = 2, Sec Enable = 0, Frame Pending = 0, Ack Request = 0, PAN ID Compress = 0, Frame Vers = 1, Dst Addrs Mode = 0, Src Addr Mode = 0, Sequence Num = 91) ns3::LrWpanMacTrailer ( FCS = 0)
r 2.02161 /NodeList/0/DeviceList/0/$ns3::LrWpanNetDevice/Mac/MacRx ns3::LrWpanMacHeader (  Frame Type = 2, Sec Enable = 0, Frame Pending = 0, Ack Request = 0, PAN ID Compress = 0, Frame Vers = 1, Dst Addrs Mode = 0, Src Addr Mode = 0, Sequence Num = 91) ns3::LrWpanMacTrailer ( FCS = 0)
- 2.02161 /NodeList/0/DeviceList/0/$ns3::LrWpanNetDevice/Mac/MacTxDequeue ns3::LrWpanMacHeader (  Frame Type = 1, Sec Enable = 0, Frame Pending = 0, Ack Request = 1, PAN ID Compress = 0, Frame Vers = 1, Dst Addrs Mode = 2, Src Addr Mode = 2, Sequence Num = 91, Dst Addr Pan ID = 10, m_addrShortDstAddr = 00:02, Src Addr Pan ID = 10, m_addrShortSrcAddr = 00:01) ns3::SixLowPanIphc (Compression kind: 31232) ns3::Icmpv6Echo (( type = 128 (Request) code = 0 checksum = 7909)) Payload (size=10) ns3::LrWpanMacTrailer ( FCS = 0)
t 2.02372 /NodeList/1/DeviceList/0/$ns3::LrWpanNetDevice/Mac/MacTx ns3::LrWpanMacHeader (  Frame Type = 1, Sec Enable = 0, Frame Pending = 0, Ack Request = 1, PAN ID Compress = 0, Frame Vers = 1, Dst Addrs Mode = 2, Src Addr Mode = 2, Sequence Num = 135, Dst Addr Pan ID = 10, m_addrShortDstAddr = 00:01, Src Addr Pan ID = 10, m_addrShortSrcAddr = 00:02) ns3::SixLowPanIphc (Compression kind: 31232) ns3::Icmpv6Echo (( type = 129 (Reply) code = 0 checksum = 7908)) Payload (size=10) ns3::LrWpanMacTrailer ( FCS = 0)
r 2.02602 /NodeList/0/DeviceList/0/$ns3::LrWpanNetDevice/Mac/MacRx ns3::LrWpanMacHeader (  Frame Type = 1, Sec Enable = 0, Frame Pending = 0, Ack Request = 1, PAN ID Compress = 0, Frame Vers = 1, Dst Addrs Mode = 2, Src Addr Mode = 2, Sequence Num = 135, Dst Addr Pan ID = 10, m_addrShortDstAddr = 00:01, Src Addr Pan ID = 10, m_addrShortSrcAddr = 00:02) ns3::SixLowPanIphc (Compression kind: 31232) ns3::Icmpv6Echo (( type = 129 (Reply) code = 0 checksum = 7908)) Payload (size=10) ns3::LrWpanMacTrailer ( FCS = 0)
t 2.02622 /NodeList/0/DeviceList/0/$ns3::LrWpanNetDevice/Mac/MacTx ns3::LrWpanMacHeader (  Frame Type = 2, Sec Enable = 0, Frame Pending = 0, Ack Request = 0, PAN ID Compress = 0, Frame Vers = 1, Dst Addrs Mode = 0, Src Addr Mode = 0, Sequence Num = 135) ns3::LrWpanMacTrailer ( FCS = 0)
r 2.02657 /NodeList/1/DeviceList/0/$ns3::LrWpanNetDevice/Mac/MacRx ns3::LrWpanMacHeader (  Frame Type = 2, Sec Enable = 0, Frame Pending = 0, Ack Request = 0, PAN ID Compress = 0, Frame Vers = 1, Dst Addrs Mode = 0, Src Addr Mode = 0, Sequence Num = 135) ns3::LrWpanMacTrailer ( FCS = 0)
- 2.02657 /NodeList/1/DeviceList/0/$ns3::LrWpanNetDevice/Mac/MacTxDequeue ns3::LrWpanMacHeader (  Frame Type = 1, Sec Enable = 0, Frame Pending = 0, Ack Request = 1, PAN ID Compress = 0, Frame Vers = 1, Dst Addrs Mode = 2, Src Addr Mode = 2, Sequence Num = 135, Dst Addr Pan ID = 10, m_addrShortDstAddr = 00:01, Src Addr Pan ID = 10, m_addrShortSrcAddr = 00:02) ns3::SixLowPanIphc (Compression kind: 31232) ns3::Icmpv6Echo (( type = 129 (Reply) code = 0 checksum = 7908)) Payload (size=10) ns3::LrWpanMacTrailer ( FCS = 0)
+ 3 /NodeList/0/DeviceList/0/$ns3::LrWpanNetDevice/Mac/MacTxEnqueue ns3::LrWpanMacHeader (  Frame Type = 1, Sec Enable = 0, Frame Pending = 0, Ack Request = 1, PAN ID Compress = 0, Frame Vers = 1, Dst Addrs Mode = 2, Src Addr Mode = 2, Sequence Num = 92, Dst Addr Pan ID = 10, m_addrShortDstAddr = 00:02, Src Addr Pan ID = 10, m_addrShortSrcAddr = 00:01) ns3::SixLowPanIphc (Compression kind: 31232) ns3::Icmpv6Echo (( type = 128 (Request) code = 0 checksum = 7653)) Payload (size=10) ns3::LrWpanMacTrailer ( FCS = 0)
t 3.00256 /NodeList/0/DeviceList/0/$ns3::LrWpanNetDevice/Mac/MacTx ns3::LrWpanMacHeader (  Frame Type = 1, Sec Enable = 0, Frame Pending = 0, Ack Request = 1, PAN ID Compress = 0, Frame Vers = 1, Dst Addrs Mode = 2, Src Addr Mode = 2, Sequence Num = 92, Dst Addr Pan ID = 10, m_addrShortDstAddr = 00:02, Src Addr Pan ID = 10, m_addrShortSrcAddr = 00:01) ns3::SixLowPanIphc (Compression kind: 31232) ns3::Icmpv6Echo (( type = 128 (Request) code = 0 checksum = 7653)) Payload (size=10) ns3::LrWpanMacTrailer ( FCS = 0)
r 3.00486 /NodeList/1/DeviceList/0/$ns3::LrWpanNetDevice/Mac/MacRx ns3::LrWpanMacHeader (  Frame Type = 1, Sec Enable = 0, Frame Pending = 0, Ack Request = 1, PAN ID Compress = 0, Frame Vers = 1, Dst Addrs Mode = 2, Src Addr Mode = 2, Sequence Num = 92, Dst Addr Pan ID = 10, m_addrShortDstAddr = 00:02, Src Addr Pan ID = 10, m_addrShortSrcAddr = 00:01) ns3::SixLowPanIphc (Compression kind: 31232) ns3::Icmpv6Echo (( type = 128 (Request) code = 0 checksum = 7653)) Payload (size=10) ns3::LrWpanMacTrailer ( FCS = 0)
+ 3.00486 /NodeList/1/DeviceList/0/$ns3::LrWpanNetDevice/Mac/MacTxEnqueue ns3::LrWpanMacHeader (  Frame Type = 1, Sec Enable = 0, Frame Pending = 0, Ack Request = 1, PAN ID Compress = 0, Frame Vers = 1, Dst Addrs Mode = 2, Src Addr Mode = 2, Sequence Num = 136, Dst Addr Pan ID = 10, m_addrShortDstAddr = 00:01, Src Addr Pan ID = 10, m_addrShortSrcAddr = 00:02) ns3::SixLowPanIphc (Compression kind: 31232) ns3::Icmpv6Echo (( type = 129 (Reply) code = 0 checksum = 7652)) Payload (size=10) ns3::LrWpanMacTrailer ( FCS = 0)
t 3.00506 /NodeList/1/DeviceList/0/$ns3::LrWpanNetDevice/Mac/MacTx ns3::LrWpanMacHeader (  Frame Type = 2, Sec Enable = 0, Frame Pending = 0, Ack Request = 0, PAN ID Compress = 0, Frame Vers = 1, Dst Addrs Mode = 0, Src Addr Mode = 0, Sequence Num = 92) ns3::LrWpanMacTrailer ( FCS = 0)
r 3.00541 /NodeList/0/DeviceList/0/$ns3::LrWpanNetDevice/Mac/MacRx ns3::LrWpanMacHeader (  Frame Type = 2, Sec Enable = 0, Frame Pending = 0, Ack Request = 0, PAN ID Compress = 0, Frame Vers = 1, Dst Addrs Mode = 0, Src Addr Mode = 0, Sequence Num = 92) ns3::LrWpanMacTrailer ( FCS = 0)
- 3.00541 /NodeList/0/DeviceList/0/$ns3::LrWpanNetDevice/Mac/MacTxDequeue ns3::LrWpanMacHeader (  Frame Type = 1, Sec Enable = 0, Frame Pending = 0, Ack Request = 1, PAN ID Compress = 0, Frame Vers = 1, Dst Addrs Mode = 2, Src Addr Mode = 2, Sequence Num = 92, Dst Addr Pan ID = 10, m_addrShortDstAddr = 00:02, Src Addr Pan ID = 10, m_addrShortSrcAddr = 00:01) ns3::SixLowPanIphc (Compression kind: 31232) ns3::Icmpv6Echo (( type = 128 (Request) code = 0 checksum = 7653)) Payload (size=10) ns3::LrWpanMacTrailer ( FCS = 0)
t 3.00784 /NodeList/1/DeviceList/0/$ns3::LrWpanNetDevice/Mac/MacTx ns3::LrWpanMacHeader (  Frame Type = 1, Sec Enable = 0, Frame Pending = 0, Ack Request = 1, PAN ID Compress = 0, Frame Vers = 1, Dst Addrs Mode = 2, Src Addr Mode = 2, Sequence Num = 136, Dst Addr Pan ID = 10, m_addrShortDstAddr = 00:01, Src Addr Pan ID = 10, m_addrShortSrcAddr = 00:02) ns3::SixLowPanIphc (Compression kind: 31232) ns3::Icmpv6Echo (( type = 129 (Reply) code = 0 checksum = 7652)) Payload (size=10) ns3::LrWpanMacTrailer ( FCS = 0)
r 3.01014 /NodeList/0/DeviceList/0/$ns3::LrWpanNetDevice/Mac/MacRx ns3::LrWpanMacHeader (  Frame Type = 1, Sec Enable = 0, Frame Pending = 0, Ack Request = 1, PAN ID Compress = 0, Frame Vers = 1, Dst Addrs Mode = 2, Src Addr Mode = 2, Sequence Num = 136, Dst Addr Pan ID = 10, m_addrShortDstAddr = 00:01, Src Addr Pan ID = 10, m_addrShortSrcAddr = 00:02) ns3::SixLowPanIphc (Compression kind: 31232) ns3::Icmpv6Echo (( type = 129 (Reply) code = 0 checksum = 7652)) Payload (size=10) ns3::LrWpanMacTrailer ( FCS = 0)
t 3.01034 /NodeList/0/DeviceList/0/$ns3::LrWpanNetDevice/Mac/MacTx ns3::LrWpanMacHeader (  Frame Type = 2, Sec Enable = 0, Frame Pending = 0, Ack Request = 0, PAN ID Compress = 0, Frame Vers = 1, Dst Addrs Mode = 0, Src Addr Mode = 0, Sequence Num = 136) ns3::LrWpanMacTrailer ( FCS = 0)